           31
Energy of minimum      1=       13.0841160635 first found at step      114
N           0.0904817196        0.3631418028       -1.9062085502
H           0.9513003956       -0.1099053604       -2.1472009709
CA         -1.1783982627       -0.3383837640       -2.1508265994
HA         -1.9071987517        0.3687864655       -2.5537494641
CB         -0.9343435843       -1.4319656376       -3.2002938778
HB1        -0.2117253836       -2.1625039026       -2.8330010145
HB2        -1.8728379911       -1.9437936504       -3.4195701127
HB3        -0.5575031779       -0.9843583260       -4.1214534904
C          -1.7619628410       -0.9108714446       -0.8389507148
O          -2.9593379001       -0.7698616965       -0.5767356591
N          -0.8970696674       -1.4931404962        0.0067246315
H           0.0463853898       -1.6295869813       -0.3287631745
CA         -1.1481471996       -1.7573306024        1.4318699185
HA2        -2.2102174166       -1.9218115075        1.6185251398
HA3        -0.5797730841       -2.6312397276        1.7526678748
C          -0.6888423419       -0.5514837022        2.2521891141
O          -1.4994318518        0.3087611325        2.6011764958
N           0.6280005551       -0.4510959514        2.4834577982
H           1.2143842589       -1.2356653463        2.2298231945
CA          1.2891426903        0.7921293814        2.9197941919
HA2         0.7106313933        1.2631686926        3.7158051216
HA3         2.2929878160        0.5656637018        3.2806084813
C           1.4119978852        1.7893402535        1.7598092501
O           1.1071028919        2.9722479511        1.9230230121
N           1.7810034381        1.2859731553        0.5726851169
H           2.0911788422        0.3241263258        0.5618891668
CA          1.5514585499        1.9312939735       -0.7283348236
HA2         1.5811341888        3.0179630835       -0.6366682283
HA3         2.3053960248        1.6037255013       -1.4451979265
C           0.1706691547        1.5242450686       -1.2434784558
O          -0.8164657405        2.2124316074       -0.9796154456
           31
Energy of minimum      2=       14.9554439478 first found at step       12
N           1.8108180754        0.2794055652        0.0135852180
H           1.7439143663        0.8813656188        0.8234694105
CA          2.0939729925       -1.1479930608        0.2289562162
HA          2.8070143597       -1.4881222233       -0.5257653046
CB          2.7433976509       -1.3127345271        1.6109210081
HB1         2.0682232145       -0.9734735315        2.3981007158
HB2         2.9822441720       -2.3641452688        1.7793923218
HB3         3.6672641011       -0.7336792624        1.6570820254
C           0.8153963329       -2.0023361227        0.0740318485
O           0.7981509292       -2.9632785373       -0.6998594714
N          -0.2661743396       -1.6040398089        0.7603496976
H          -0.1322423911       -0.8476552502        1.4177360085
CA         -1.6552797188       -1.9787069616        0.4496699587
HA2        -1.7007143135       -2.9105184957       -0.1155025859
HA3        -2.2296094691       -2.0755752146        1.3718939848
C          -2.2666457013       -0.8598636528       -0.3915452892
O          -2.2265767444       -0.9089454759       -1.6223461054
N          -2.7082809668        0.2084657998        0.2838980998
H          -2.7680656679        0.1300012071        1.2906825786
CA         -2.6599665299        1.5697950597       -0.2672601747
HA2        -2.9306368338        1.5706815185       -1.3242712760
HA3        -3.3289735994        2.2312144095        0.2843833102
C          -1.2270706159        2.0819939940       -0.1066072063
O          -0.7652349169        2.2722318270        1.0207757290
N          -0.4929808210        2.2079298139       -1.2173019648
H          -0.9523717839        2.0551826955       -2.1055477679
CA          0.9775638740        2.2355997456       -1.2133221304
HA2         1.3461171097        2.7157309922       -2.1206278246
HA3         1.3529965900        2.7744007279       -0.3420348885
C           1.5079063335        0.7998415764       -1.1827027598
O           1.5958443117        0.1572268424       -2.2302333820
           31
Energy of minimum      3=       15.1590334530 first found at step      385
N           1.8933402263        0.3004671734        0.5431312022
H           1.6918663968        1.0835531647        1.1511482184
CA          1.8601404438       -1.0491184094        1.1222585332
HA          2.6534348768       -1.6528443194        0.6751383012
CB          2.1282531982       -0.9310037589        2.6288859763
HB1         1.3468075936       -0.3407134696        3.1105015717
HB2         2.1451812116       -1.9260660028        3.0764979761
HB3         3.0957768371       -0.4553635587        2.7979266398
C           0.5142838128       -1.7562892888        0.8317496517
O           0.4852159760       -2.9686650580        0.6057305868
N          -0.5846732459       -0.9858168755        0.7938157225
H          -0.4685909567       -0.0153641239        1.0524218905
CA         -1.9225618616       -1.4038051911        0.3489572184
HA2        -2.0785484130       -2.4600705330        0.5723713281
HA3        -2.6790037478       -0.8208756045        0.8739671388
C          -2.1269103856       -1.2034802120       -1.1616620612
O          -2.1175883551       -2.1817830265       -1.9076445668
N          -2.3140486401        0.0260954231       -1.6678642238
H          -2.4665722919        0.0655181710       -2.6670983604
CA         -2.3624001733        1.3070428912       -0.9366573931
HA2        -2.8454719970        2.0543046760       -1.5675820860
HA3        -2.9361877672        1.1978497981       -0.0157323793
C          -0.9725911144        1.8417770631       -0.5806085030
O          -0.7353596445        2.2068579174        0.5712340348
N          -0.0248328811        1.7750600213       -1.5239983890
H          -0.3065781157        1.4718162104       -2.4470486781
CA          1.4178297026        1.8800894440       -1.2556738478
HA2         1.9547965385        2.1437327236       -2.1677034228
HA3         1.6149114832        2.6279165178       -0.4859238794
C           1.9176728995        0.5191699494       -0.7761552780
O           2.2224083942       -0.3499917126       -1.5943829218
           31
Energy of minimum      4=       15.1993367413 first found at step      347
N          -0.5309958304        0.3320900667       -1.8431618548
H           0.1046871570       -0.2969877425       -2.3149736492
CA         -1.8926250513       -0.1443534410       -1.5570565597
HA         -2.5979281943        0.6810105966       -1.6799539913
CB         -2.2541485244       -1.2417556810       -2.5692351343
HB1        -2.2115885001       -0.8377187349       -3.5821021458
HB2        -1.5651555256       -2.0841872476       -2.4914780004
HB3        -3.2684335141       -1.5959147294       -2.3776107419
C          -1.9885432312       -0.6255244911       -0.0919804827
O          -2.8152782408       -0.1294472922        0.6774411441
N          -1.0740867516       -1.5221738588        0.3062121048
H          -0.4907269944       -1.9263351048       -0.4139959498
CA         -0.6364169095       -1.7342475198        1.6938326549
HA2        -1.3098522882       -1.2495250391        2.4019965771
HA3        -0.5834321846       -2.8017808606        1.9106011521
C           0.7720268436       -1.1591650537        1.8418060054
O           1.7240586403       -1.7197627482        1.2954300808
N           0.8964426024        0.0054019431        2.4887153058
H           0.0686700610        0.3881274271        2.9267626066
CA          2.0803099488        0.8809298577        2.4020735822
HA2         2.1107468519        1.5486248909        3.2639724018
HA3         2.9923314367        0.2829690930        2.3701320449
C           2.0233274692        1.7344209153        1.1290800457
O           1.9231696434        2.9602927124        1.2065801164
N           2.0009435993        1.0688911300       -0.0342036000
H           2.1601190231        0.0699401704        0.0129429608
CA          1.4898117251        1.6086680682       -1.3030607348
HA2         1.7346678536        2.6672066419       -1.4019865708
HA3         1.9137859245        1.0555424167       -2.1419780692
C          -0.0331736046        1.4611202503       -1.3225105718
O          -0.7427134348        2.3236433645       -0.8022907270
           31
Energy of minimum      5=       15.3130846193 first found at step      772
N           0.7417187199        0.0981076156       -1.8899894768
H           1.5506117873        0.5852967749       -1.5268694992
CA          0.7598673105       -1.3713656857       -1.8735929561
HA          0.2666077484       -1.7471726284       -2.7731257683
CB          2.2243190496       -1.8304787770       -1.8936750220
HB1         2.2657792235       -2.9205543711       -1.9224866586
HB2         2.7247279738       -1.4383378188       -2.7806612022
HB3         2.7456030407       -1.4809611105       -1.0008055609
C          -0.0017542479       -1.9415383168       -0.6517557036
O          -0.6309685834       -2.9983147876       -0.7487423406
N           0.0194157133       -1.2167119583        0.4771957309
H           0.6093597254       -0.3941427024        0.4803610781
CA         -0.7839499753       -1.4666764830        1.6828003326
HA2        -1.8169412118       -1.1781870177        1.4879212673
HA3        -0.7908122516       -2.5344682068        1.9059384382
C          -0.2804112048       -0.7007444965        2.9162684587
O           0.3080067622       -1.3147073100        3.8055524154
N          -0.4682982407        0.6238477955        3.0241063281
H          -0.0923681374        1.0478746321        3.8612918453
CA         -1.1428672110        1.5302628248        2.0745261403
HA2        -2.0799139552        1.0824235232        1.7403837198
HA3        -1.3720939438        2.4734265098        2.5724090547
C          -0.2983789738        1.8547439609        0.8366137519
O           0.9190021488        1.6562705726        0.8343897207
N          -0.9566477062        2.2675949945       -0.2526122408
H          -1.9507647987        2.4388279198       -0.1708551974
CA         -0.3783608972        2.2512710079       -1.6063334378
HA2        -0.9814192651        2.8563911285       -2.2844382824
HA3         0.6436642068        2.6333029820       -1.5908057722
C          -0.3684703443        0.8097873384       -2.1161003156
O          -1.3842624620        0.3249320899       -2.6169088476
           31
Energy of minimum      6=       15.5274730636 first found at step       27
N           1.3497080608        1.2856159521       -0.3110311461
H           0.9528913119        2.0619821618        0.2010282972
CA          2.1775234097        0.3399696674        0.4466568170
HA          2.8482346999       -0.1929527790       -0.2319519468
CB          3.0424634707        1.1299318513        1.4416548142
HB1         3.6907619975        1.8209995823        0.9006319564
HB2         2.4126316073        1.6961510819        2.1298698717
HB3         3.6643291977        0.4411260469        2.0154950016
C           1.2474336921       -0.6941369409        1.1202597295
O           0.7191637712       -0.4583015151        2.2113306822
N           0.9625858764       -1.7967983667        0.4137221481
H           1.4449926207       -1.9258475132       -0.4665268065
CA         -0.2125057109       -2.6473530771        0.6612831505
HA2        -0.0541507589       -3.6418457362        0.2425374710
HA3        -0.4136513551       -2.7283207224        1.7305708559
C          -1.4248674107       -2.0195469875       -0.0288819200
O          -1.6628243087       -2.2701359344       -1.2119466873
N          -2.1305987319       -1.1321410186        0.6829401886
H          -1.8724484773       -1.0073261385        1.6534021764
CA         -2.9940403649       -0.1033547074        0.0828513654
HA2        -3.5000804738       -0.4898509521       -0.8031774358
HA3        -3.7333635235        0.2396418963        0.8075471078
C          -2.1210817935        1.0870513338       -0.3179040468
O          -1.8533450794        1.9644072179        0.5052960646
N          -1.5983844551        1.0625575847       -1.5500578191
H          -1.8939755117        0.3154897576       -2.1652606449
CA         -0.3961377949        1.8147266393       -1.9401408668
HA2        -0.3653510307        1.9436029551       -3.0227045518
HA3        -0.3745807436        2.7915852093       -1.4546100359
C           0.8344407852        1.0124871103       -1.5142999715
O           1.2542270236        0.1005863412       -2.2285838188
           31
Energy of minimum      7=       15.6643982807 first found at step      737
N           1.0353628392        0.5637216969       -1.8068266430
H           1.3116523027        0.0204057042       -2.6133200368
CA         -0.3398898529        1.0881167735       -1.7982433939
HA         -0.3333936172        2.1302623967       -1.4714553910
CB         -0.8637903615        1.0567787323       -3.2420088745
HB1        -0.2192246545        1.6598929730       -3.8840143501
HB2        -0.8888672200        0.0333461686       -3.6205583254
HB3        -1.8733168195        1.4703977487       -3.2760835703
C          -1.2617572587        0.3048427253       -0.8410352116
O          -1.9315981993        0.9117822966       -0.0031280181
N          -1.2132249079       -1.0340518724       -0.8836914086
H          -0.6426366702       -1.4574560252       -1.6036992922
CA         -1.7563892631       -1.9197598977        0.1587800038
HA2        -2.6868832545       -1.5168496462        0.5618116550
HA3        -1.9342734735       -2.9167015620       -0.2462552663
C          -0.7300463165       -2.0317232797        1.2840445572
O           0.1765103689       -2.8637723421        1.2146288376
N          -0.8109903760       -1.1193759367        2.2607441374
H          -1.6236792411       -0.5160773438        2.2777819636
CA          0.3324312394       -0.7594890336        3.1169945322
HA2        -0.0213622586       -0.1800038576        3.9702828220
HA3         0.8305006559       -1.6637448194        3.4698674778
C           1.3672351064        0.0902022082        2.3602427103
O           2.5636200339       -0.0008797480        2.6401306859
N           0.9085156258        0.8700942408        1.3693448755
H          -0.0957858613        0.9245080237        1.2626931778
CA          1.7242656115        1.5813810519        0.3745042342
HA2         1.2122078106        2.4926606587        0.0667495262
HA3         2.6890691505        1.8531620292        0.8052052902
C           1.9880067955        0.7289724229       -0.8772644168
O           3.0877320661        0.1993575132       -1.0262222881
           31
Energy of minimum      8=       15.8083761551 first found at step       25
N           2.0433530870       -0.0238393747       -0.4717360682
H           2.5275614029        0.5083534578        0.2382614351
CA          1.7627301320       -1.4290992178       -0.1629989886
HA          1.5875437235       -1.9844501043       -1.0877546950
CB          2.9829225520       -2.0410495978        0.5410085880
HB1         2.7864580586       -3.0891401783        0.7722968956
HB2         3.8548604243       -1.9826362513       -0.1124312010
HB3         3.1948740379       -1.5076454999        1.4692263370
C           0.4822330227       -1.4759845794        0.6982269512
O           0.4622450769       -0.9474921416        1.8145210136
N          -0.6116143741       -2.0190065939        0.1492119696
H          -0.5225873743       -2.4482854981       -0.7625196652
CA         -1.9734515156       -1.8092430264        0.6672841148
HA2        -2.6361281570       -2.5971597083        0.3072884408
HA3        -1.9720354442       -1.8091575571        1.7583625304
C          -2.5150808343       -0.4626572323        0.1778023515
O          -3.2001284606       -0.4088882182       -0.8453819894
N          -2.1603509983        0.6250658591        0.8762572940
H          -1.6164917309        0.4796830111        1.7173864163
CA         -2.3562056298        2.0100647091        0.4117599144
HA2        -3.3360916072        2.1168667323       -0.0558780766
HA3        -2.2775873876        2.6948289754        1.2569177445
C          -1.2857199590        2.3923998155       -0.6161027423
O          -1.6068227722        2.6980515648       -1.7662142068
N          -0.0116009007        2.2935961941       -0.2127710117
H           0.1437642750        2.1013360771        0.7679280702
CA          1.1419960042        2.1472438185       -1.1143786271
HA2         0.9681283220        2.6537579294       -2.0648104029
HA3         2.0405642407        2.5451793339       -0.6412026467
C           1.3393712171        0.6562809643       -1.3827757705
O           0.7632915688        0.1130263371       -2.3267839752
           31
Energy of minimum      9=       15.9348903930 first found at step       13
N           1.7410195469       -0.0558778657        0.4277003169
H           1.8263367549        0.4317303578        1.3103033057
CA          1.8995158055       -1.5193230341        0.4184563333
HA          2.6372809350       -1.7933107658       -0.3394404079
CB          2.4242387524       -1.9686234689        1.7900154629
HB1         1.7230984956       -1.6978633214        2.5809176575
HB2         2.5587804090       -3.0516213317        1.7927286980
HB3         3.3883417438       -1.4977130121        1.9893051288
C           0.5671492153       -2.1992439116        0.0360868177
O           0.5182812071       -3.0010226871       -0.9004098830
N          -0.5234596180       -1.7845895715        0.6976393531
H          -0.3699190445       -1.2517789606        1.5426390966
CA         -1.8934205259       -1.8216825218        0.1572701681
HA2        -1.9732913832       -2.5688819528       -0.6332559328
HA3        -2.5844532995       -2.0686497892        0.9639145037
C          -2.3368398213       -0.4645193635       -0.4164526788
O          -3.1608152170       -0.4255658813       -1.3315241403
N          -1.7803258454        0.6417732898        0.1032731359
H          -1.1555474187        0.5173333066        0.8850827936
CA         -2.0766828701        2.0271755608       -0.2982434466
HA2        -3.1384992521        2.1190739880       -0.5317073139
HA3        -1.8431599390        2.6953551671        0.5313437288
C          -1.2842013136        2.5260527808       -1.5182328262
O          -1.8981306745        2.9067997276       -2.5147145260
N           0.0566887823        2.5686776823       -1.5074000207
H           0.4805779018        2.9188293809       -2.3554879846
CA          0.9865675133        2.1074923669       -0.4598359498
HA2         1.8986720327        2.7046709025       -0.4976514457
HA3         0.5389528356        2.2207882553        0.5278447657
C           1.3981112919        0.6438480530       -0.6623382380
O           1.3751329996        0.1406666195       -1.7878264720
           31
Energy of minimum     10=       16.0583319177 first found at step       50
N           0.2762418866        0.3621334318       -1.8349275353
H           1.2763671115        0.2752964658       -1.9547817996
CA         -0.5449093616       -0.8149701682       -2.1531500477
HA         -1.5454853281       -0.4893087338       -2.4484317968
CB          0.0880982139       -1.5301228488       -3.3583530399
HB1         1.0956544786       -1.8700276933       -3.1130457297
HB2        -0.5198410541       -2.3927384875       -3.6354808474
HB3         0.1373909018       -0.8491282440       -4.2094624296
C          -0.7054826483       -1.7126657602       -0.8999939089
O          -0.1389454340       -2.8070803620       -0.8180795958
N          -1.4212355591       -1.2013123043        0.1130978548
H          -1.8770810876       -0.3114640541       -0.0496235392
CA         -1.4223514449       -1.7238833249        1.4901101273
HA2        -2.3309385111       -1.4084969411        2.0044714994
HA3        -1.3610969205       -2.8130787584        1.4896054128
C          -0.2162887705       -1.1695057959        2.2520076379
O           0.7657482388       -1.8816921695        2.4699845140
N          -0.2651412492        0.1298381653        2.5760470938
H          -1.1397480090        0.6137845293        2.4213165546
CA          0.9224161512        0.9521158137        2.8607123985
HA2         0.6374020634        1.8341425069        3.4355758410
HA3         1.6721633260        0.3784726208        3.4075313369
C           1.5266760257        1.4070789996        1.5315533826
O           2.5520856499        0.8805290061        1.0958120330
N           0.8109515603        2.3002706062        0.8366787157
H           0.0193538943        2.7226368081        1.3038254234
CA          0.8510145817        2.4170963114       -0.6276561667
HA2         0.5808273212        3.4281536909       -0.9345785018
HA3         1.8412959479        2.1697176308       -1.0128658171
C          -0.1816963869        1.4511561586       -1.2106420507
O          -1.3834455881        1.6530529007       -1.0272570192
           31
Energy of minimum     11=       16.3761495138 first found at step       38
N           0.9078241222        1.1235731241       -1.3415028700
H           0.6683670350        1.9354800240       -0.7886351855
CA          2.0719002185        0.3284876792       -0.9276148903
HA          2.4162521654       -0.2835551210       -1.7643248725
CB          3.1967139698        1.3021028262       -0.5491537252
HB1         2.8986504503        1.9178955701        0.3010387900
HB2         4.0931494263        0.7404968823       -0.2812938564
HB3         3.4292041094        1.9476674050       -1.3976940065
C           1.7366722274       -0.6320103213        0.2408811891
O           2.3467355536       -1.6977059157        0.3579753356
N           0.7648127759       -0.2632956041        1.0927458505
H           0.3468266547        0.6428794096        0.9467720776
CA          0.3365097748       -1.0094821510        2.2880420447
HA2         1.2046941039       -1.4758875717        2.7560116448
HA3        -0.1107098451       -0.3153445157        3.0002868343
C          -0.6987266027       -2.1137900880        2.0181927704
O          -0.4076412750       -3.2828800274        2.2699298862
N          -1.9152578786       -1.8199505109        1.5353973471
H          -2.5279382208       -2.6130325515        1.4040102652
CA         -2.4397351676       -0.5143690678        1.0950785227
HA2        -3.5188073427       -0.4848493462        1.2518513448
HA3        -1.9839331625        0.2965171215        1.6636308162
C          -2.1951343285       -0.2856748415       -0.4012043966
O          -2.2088383046       -1.2377957100       -1.1852333352
N          -1.9300414883        0.9680035496       -0.7955673407
H          -2.0223342208        1.7165371245       -0.1204070026
CA         -1.3900165169        1.2941569519       -2.1283823688
HA2        -2.0157267884        0.8507871478       -2.9045031321
HA3        -1.3519429412        2.3757509427       -2.2634027993
C           0.0245970231        0.7253867158       -2.2641492039
O           0.2738744734       -0.1360991303       -3.1087757338
           31
Energy of minimum     12=       16.3963412603 first found at step     3122
N           2.3958130182       -0.7314787349        0.4736439960
H           3.0220388884       -1.2337877163        1.0865419088
CA          1.3407461540       -1.5274675515       -0.1759217488
HA          1.2773519861       -1.2398850483       -1.2283511644
CB          1.7597190006       -3.0046899881       -0.1193364358
HB1         2.7318751448       -3.1353573622       -0.5983070507
HB2         1.8234143301       -3.3389476835        0.9180215682
HB3         1.0286255452       -3.6221197930       -0.6441291613
C          -0.0527455571       -1.3069680549        0.4554784814
O          -0.1653717891       -0.8079769869        1.5792698588
N          -1.1207617136       -1.6065136336       -0.2958957418
H          -0.9646092204       -2.0461639826       -1.1940742338
CA         -2.4854207683       -1.1401912406        0.0030463311
HA2        -3.2165669487       -1.7143539253       -0.5674066810
HA3        -2.6982687488       -1.2378370003        1.0688406742
C          -2.6016406646        0.3312996382       -0.3961805813
O          -2.8676842176        0.6376711477       -1.5598655072
N          -2.2956342060        1.2342519839        0.5447045665
H          -2.1473095765        0.8985085513        1.4881640014
CA         -1.8910436631        2.6175755858        0.2370117164
HA2        -2.5570865569        3.0384244786       -0.5176497490
HA3        -1.9418033106        3.2191261858        1.1450926838
C          -0.4522592886        2.6964170041       -0.3029456772
O          -0.1356701999        3.5948538549       -1.0844502653
N           0.3974975097        1.7279802817        0.0694360879
H           0.0652063506        1.0729710975        0.7666750643
CA          1.7355565984        1.4853367352       -0.4885348310
HA2         1.6334557227        1.0158228691       -1.4669954911
HA3         2.2470478338        2.4358675228       -0.6471791335
C           2.6117228157        0.5895737051        0.4007339320
O           3.5238055316        1.0980580603        1.0505625824
           31
Energy of minimum     13=       16.5534342048 first found at step        0
N           0.8663556247       -0.0308852644       -1.5186731875
H           1.5939381154        0.6673010584       -1.4468000036
CA          1.2226888998       -1.4165878321       -1.1904442889
HA          0.5794735554       -2.1055316565       -1.7438458294
CB          2.6736653886       -1.6698092847       -1.6295026750
HB1         2.7654084330       -1.5206083762       -2.7064926847
HB2         3.3533333819       -0.9880337507       -1.1155380236
HB3         2.9555058002       -2.6968063235       -1.3920961626
C           0.9844412370       -1.6361886036        0.3183385725
O           1.8495466128       -1.3392841057        1.1481119173
N          -0.2416560574       -2.0429220846        0.6767374909
H          -0.8838688015       -2.3215068347       -0.0546833093
CA         -0.7859264021       -1.8553941063        2.0331537657
HA2        -1.6908080914       -2.4531271418        2.1470771202
HA3        -0.0479051892       -2.1652992661        2.7743961573
C          -1.1482110592       -0.3861404281        2.3070365511
O          -1.0248780362        0.0786324783        3.4415086261
N          -1.5409425411        0.3512402560        1.2572246281
H          -1.6740178215       -0.1379509005        0.3821867477
CA         -1.7064565839        1.8120419176        1.2360348026
HA2        -2.4793279461        2.0804728938        0.5161004323
HA3        -2.0058937914        2.1710253280        2.2217063251
C          -0.4096734077        2.5365970317        0.8397005960
O           0.2435425711        3.1207982818        1.7031727671
N           0.0129514886        2.5319337973       -0.4349915688
H           0.8618653554        3.0529393831       -0.6117368860
CA         -0.6387254171        1.9064015232       -1.6018967738
HA2        -1.7155791538        2.0765248598       -1.5726626462
HA3        -0.2358897757        2.3528072838       -2.5120583969
C          -0.3891154463        0.3987409630       -1.6843340050
O          -1.3438409423       -0.3713810963       -1.7867300588
           31
Energy of minimum     14=       16.5898339093 first found at step        5
N           1.0293029735       -0.7307012363       -1.3307111309
H           2.0084795776       -0.7219893177       -1.0737217696
CA          0.3289250611       -2.0257768226       -1.3787699638
HA         -0.1910166805       -2.1157523611       -2.3355651231
CB          1.3738254518       -3.1463511145       -1.2850733361
HB1         2.0819437314       -3.0635789448       -2.1112801918
HB2         1.9150928509       -3.0873861105       -0.3392838132
HB3         0.8769583509       -4.1159608912       -1.3474498692
C          -0.7338775429       -2.1240104452       -0.2601496855
O          -1.8558537077       -2.5792822438       -0.4943499388
N          -0.3899488833       -1.6074811142        0.9280783034
H           0.5811346843       -1.3460190891        1.0384452273
CA         -1.3051907666       -1.1946123647        2.0047346271
HA2        -2.3399472005       -1.4100111761        1.7360675624
HA3        -1.0453921450       -1.7333062807        2.9167932633
C          -1.1792326015        0.3066920350        2.3014539654
O          -1.2264357456        0.7111108267        3.4644113340
N          -0.9405956844        1.1189246942        1.2612885552
H          -1.0228406205        0.7187241687        0.3365887210
CA         -0.5114606687        2.5227665731        1.3639064096
HA2        -1.1645443993        3.0488493573        2.0617406717
HA3         0.4907390577        2.5492415770        1.7930925422
C          -0.4796532632        3.2977885147        0.0356338103
O          -1.1707584921        4.3092939454       -0.0798033435
N           0.2841378832        2.8928262967       -0.9912532045
H           0.2299986555        3.4709229610       -1.8188271176
CA          1.1575632441        1.7067790009       -1.0813675453
HA2         1.9301374201        1.8824715244       -1.8314039142
HA3         1.6404743769        1.5218847159       -0.1204928073
C           0.3998596077        0.4388172325       -1.4932240848
O          -0.7718245252        0.5051260892       -1.8695081537
           31
Energy of minimum     15=       16.6671241039 first found at step        1
N           0.5849023718        0.2546768283        1.7465671973
H          -0.1167644906        0.4658111747        2.4438515634
CA          1.1094710233       -1.1167613481        1.7071964540
HA          2.1518671214       -1.1029232787        1.3785970943
CB          1.0710735912       -1.7014438510        3.1280283069
HB1         1.6899575917       -1.0974848251        3.7935033855
HB2         0.0480454816       -1.7168990753        3.5076979094